Title: * C:\git\Draft1.asc
Date: Sun Apr 23 12:22:54 2023
Plotname: Operating Point
Flags: real
No. Variables: 23
No. Points:            0
Offset:   0.0000000000000000e+000
Command: Linear Technology Corporation LTspice IV
Variables:
