Title: * C:\git\Draft2.asc
Date: Sun Apr 23 12:42:35 2023
Plotname: Operating Point
Flags: real
No. Variables: 11
No. Points:            0
Offset:   0.0000000000000000e+000
Command: Linear Technology Corporation LTspice IV
Variables:
